<?xml version="1.0" encoding="UTF-8"?>

<!-- generated on 2026-03-28 10:19:15 by Eclipse SUMO GUI Version 1.24.0
<sumoConfiguration xmlns:xsi="http://www.w3.org/2001/XMLSchema-instance" xsi:noNamespaceSchemaLocation="http://sumo.dlr.de/xsd/sumoConfiguration.xsd">

    <input>
        <net-file value="C:\Users\ASUS\Sumo\2026-03-28-09-38-34\osm.net.xml.gz"/>
        <route-files value="C:\Users\ASUS\Sumo\2026-03-28-09-38-34\../2026-03-28-09-19-13/road.rou.xml"/>
        <additional-files value="C:\Users\ASUS\Sumo\2026-03-28-09-38-34\osm.poly.xml.gz,C:\Users\ASUS\Sumo\2026-03-28-09-38-34\output.add.xml"/>
    </input>

    <output>
        <tripinfo-output value="C:\Users\ASUS\Sumo\2026-03-28-09-38-34\tripinfos.xml"/>
        <statistic-output value="C:\Users\ASUS\Sumo\2026-03-28-09-38-34\stats.xml"/>
    </output>

    <processing>
        <ignore-route-errors value="true"/>
        <tls.actuated.jam-threshold value="30"/>
    </processing>

    <routing>
        <device.rerouting.adaptation-steps value="18"/>
        <device.rerouting.adaptation-interval value="10"/>
    </routing>

    <report>
        <verbose value="true"/>
        <duration-log.statistics value="true"/>
        <no-step-log value="true"/>
    </report>

    <gui_only>
        <gui-settings-file value="C:\Users\ASUS\Sumo\2026-03-28-09-38-34\osm.view.xml"/>
    </gui_only>

</sumoConfiguration>
-->

<meandata xmlns:xsi="http://www.w3.org/2001/XMLSchema-instance" xsi:noNamespaceSchemaLocation="http://sumo.dlr.de/xsd/meandata_file.xsd">
    <interval begin="0.00" end="142.00" id="wizard_example">
        <edge id="-1195022788" sampledSeconds="0.00" departed="0" arrived="0" entered="0" left="0" laneChangedFrom="0" laneChangedTo="0"/>
        <edge id="-1307678629" sampledSeconds="0.00" departed="0" arrived="0" entered="0" left="0" laneChangedFrom="0" laneChangedTo="0"/>
        <edge id="-156261434#0" sampledSeconds="86.95" traveltime="5.01" overlapTraveltime="5.80" density="8.67" laneDensity="8.67" occupancy="3.90" waitingTime="0.00" timeLoss="26.17" speed="13.04" speedRelative="0.59" departed="0" arrived="0" entered="15" left="15" laneChangedFrom="0" laneChangedTo="0"/>
        <edge id="-156261434#1" sampledSeconds="33.29" traveltime="1.63" overlapTraveltime="2.08" density="16.17" laneDensity="16.17" occupancy="5.98" waitingTime="0.00" timeLoss="19.14" speed="9.37" speedRelative="0.42" departed="0" arrived="0" entered="16" left="16" laneChangedFrom="0" laneChangedTo="0"/>
        <edge id="-156261434#2" sampledSeconds="61.15" traveltime="4.43" overlapTraveltime="4.90" density="23.64" laneDensity="23.64" occupancy="10.86" waitingTime="0.00" timeLoss="48.00" speed="4.74" speedRelative="0.21" departed="16" arrived="0" entered="0" left="16" laneChangedFrom="0" laneChangedTo="0"/>
        <edge id="-156261446#0" sampledSeconds="0.00" departed="0" arrived="0" entered="0" left="0" laneChangedFrom="0" laneChangedTo="0"/>
        <edge id="-156261446#1" sampledSeconds="0.00" departed="0" arrived="0" entered="0" left="0" laneChangedFrom="0" laneChangedTo="0"/>
        <edge id="-176159802" sampledSeconds="0.00" departed="0" arrived="0" entered="0" left="0" laneChangedFrom="0" laneChangedTo="0"/>
        <edge id="-25715414" sampledSeconds="57.88" traveltime="8.81" overlapTraveltime="9.65" density="4.86" laneDensity="4.86" occupancy="2.22" waitingTime="0.00" timeLoss="16.12" speed="9.22" speedRelative="0.66" departed="0" arrived="0" entered="6" left="6" laneChangedFrom="0" laneChangedTo="0"/>
        <edge id="-340474222" sampledSeconds="16.12" traveltime="2.43" overlapTraveltime="2.96" density="5.80" laneDensity="5.80" occupancy="2.36" waitingTime="0.00" timeLoss="6.56" speed="8.30" speedRelative="0.60" departed="0" arrived="6" entered="6" left="0" laneChangedFrom="0" laneChangedTo="0"/>
        <edge id="-975270186" sampledSeconds="0.00" departed="0" arrived="0" entered="0" left="0" laneChangedFrom="0" laneChangedTo="0"/>
        <edge id="1019990637#0" sampledSeconds="37.04" traveltime="1.65" overlapTraveltime="1.85" density="6.62" laneDensity="2.21" occupancy="0.98" waitingTime="0.00" timeLoss="4.03" speed="23.98" speedRelative="0.86" departed="0" arrived="0" entered="20" left="20" laneChangedFrom="0" laneChangedTo="0"/>
        <edge id="1019990637#1" sampledSeconds="37.90" traveltime="1.70" overlapTraveltime="1.89" density="6.36" laneDensity="2.12" occupancy="0.95" waitingTime="0.00" timeLoss="2.98" speed="24.79" speedRelative="0.89" departed="0" arrived="0" entered="20" left="20" laneChangedFrom="0" laneChangedTo="0"/>
        <edge id="1019990638" sampledSeconds="14.82" traveltime="0.52" overlapTraveltime="0.74" density="9.20" laneDensity="3.07" occupancy="1.06" waitingTime="0.00" timeLoss="2.67" speed="22.06" speedRelative="0.79" departed="0" arrived="0" entered="20" left="20" laneChangedFrom="0" laneChangedTo="0"/>
        <edge id="1195022788" sampledSeconds="0.00" departed="0" arrived="0" entered="0" left="0" laneChangedFrom="0" laneChangedTo="0"/>
        <edge id="1307678629" sampledSeconds="0.00" departed="0" arrived="0" entered="0" left="0" laneChangedFrom="0" laneChangedTo="0"/>
        <edge id="156261434#0" sampledSeconds="0.00" departed="0" arrived="0" entered="0" left="0" laneChangedFrom="0" laneChangedTo="0"/>
        <edge id="156261434#1" sampledSeconds="0.00" departed="0" arrived="0" entered="0" left="0" laneChangedFrom="0" laneChangedTo="0"/>
        <edge id="156261434#2" sampledSeconds="0.00" departed="0" arrived="0" entered="0" left="0" laneChangedFrom="0" laneChangedTo="0"/>
        <edge id="156261446#0" sampledSeconds="0.00" departed="0" arrived="0" entered="0" left="0" laneChangedFrom="0" laneChangedTo="0"/>
        <edge id="156261446#1" sampledSeconds="0.00" departed="0" arrived="0" entered="0" left="0" laneChangedFrom="0" laneChangedTo="0"/>
        <edge id="176159802" sampledSeconds="0.00" departed="0" arrived="0" entered="0" left="0" laneChangedFrom="0" laneChangedTo="0"/>
        <edge id="25715414" sampledSeconds="0.00" departed="0" arrived="0" entered="0" left="0" laneChangedFrom="0" laneChangedTo="0"/>
        <edge id="340474222" sampledSeconds="0.00" departed="0" arrived="0" entered="0" left="0" laneChangedFrom="0" laneChangedTo="0"/>
        <edge id="452179357#0" sampledSeconds="29.97" traveltime="1.49" overlapTraveltime="2.00" density="18.65" laneDensity="6.22" occupancy="2.13" waitingTime="0.00" timeLoss="21.03" speed="8.17" speedRelative="0.29" departed="0" arrived="0" entered="15" left="15" laneChangedFrom="0" laneChangedTo="0"/>
        <edge id="452179357#1" sampledSeconds="29.38" traveltime="1.79" overlapTraveltime="2.10" density="8.42" laneDensity="2.81" occupancy="1.16" waitingTime="0.00" timeLoss="14.10" speed="14.09" speedRelative="0.51" departed="0" arrived="0" entered="14" left="14" laneChangedFrom="0" laneChangedTo="0"/>
        <edge id="452179357#2" sampledSeconds="35.13" traveltime="2.26" overlapTraveltime="2.51" density="6.09" laneDensity="2.03" occupancy="0.90" waitingTime="0.00" timeLoss="11.57" speed="18.17" speedRelative="0.65" departed="0" arrived="0" entered="14" left="14" laneChangedFrom="0" laneChangedTo="0"/>
        <edge id="452179357#4" sampledSeconds="220.63" traveltime="15.29" overlapTraveltime="16.04" density="25.81" laneDensity="8.60" occupancy="4.20" waitingTime="130.00" timeLoss="187.53" speed="4.06" speedRelative="0.15" departed="0" arrived="0" entered="14" left="12" laneChangedFrom="1" laneChangedTo="1"/>
        <edge id="459784945#0" sampledSeconds="20.04" traveltime="0.81" overlapTraveltime="1.00" density="6.87" laneDensity="2.29" occupancy="0.92" waitingTime="0.00" timeLoss="1.05" speed="25.50" speedRelative="0.92" departed="0" arrived="0" entered="20" left="20" laneChangedFrom="0" laneChangedTo="0"/>
        <edge id="459784945#1" sampledSeconds="19.09" traveltime="0.76" overlapTraveltime="0.95" density="6.95" laneDensity="2.32" occupancy="0.92" waitingTime="0.00" timeLoss="1.01" speed="25.49" speedRelative="0.92" departed="0" arrived="0" entered="20" left="20" laneChangedFrom="0" laneChangedTo="0"/>
        <edge id="459784945#2" sampledSeconds="27.07" traveltime="1.16" overlapTraveltime="1.35" density="6.42" laneDensity="2.14" occupancy="0.92" waitingTime="0.00" timeLoss="1.29" speed="25.63" speedRelative="0.92" departed="0" arrived="0" entered="20" left="20" laneChangedFrom="0" laneChangedTo="0"/>
        <edge id="459784945#3" sampledSeconds="24.49" traveltime="1.05" overlapTraveltime="1.25" density="6.31" laneDensity="2.10" occupancy="0.90" waitingTime="0.00" timeLoss="0.87" speed="25.93" speedRelative="0.93" departed="0" arrived="20" entered="20" left="0" laneChangedFrom="0" laneChangedTo="0"/>
        <edge id="693449409#0" sampledSeconds="336.12" traveltime="15.05" overlapTraveltime="15.33" density="11.26" laneDensity="3.75" occupancy="1.86" waitingTime="0.00" timeLoss="160.82" speed="14.04" speedRelative="0.51" departed="24" arrived="0" entered="0" left="21" laneChangedFrom="15" laneChangedTo="15"/>
        <edge id="693449409#1" sampledSeconds="256.51" traveltime="11.74" overlapTraveltime="12.29" density="45.05" laneDensity="15.02" occupancy="7.29" waitingTime="154.00" timeLoss="221.58" speed="3.67" speedRelative="0.13" departed="0" arrived="0" entered="21" left="20" laneChangedFrom="3" laneChangedTo="3"/>
        <edge id="939141446#0" sampledSeconds="89.50" traveltime="2.97" overlapTraveltime="3.38" density="14.53" laneDensity="4.84" occupancy="2.14" waitingTime="0.00" timeLoss="36.38" speed="14.33" speedRelative="0.52" departed="0" arrived="0" entered="27" left="26" laneChangedFrom="0" laneChangedTo="0"/>
        <edge id="939141447#0" sampledSeconds="47.18" traveltime="2.72" overlapTraveltime="3.02" density="9.02" laneDensity="3.01" occupancy="1.30" waitingTime="0.00" timeLoss="23.55" speed="13.87" speedRelative="0.50" departed="0" arrived="0" entered="17" left="15" laneChangedFrom="2" laneChangedTo="2"/>
        <edge id="939141447#1" sampledSeconds="142.73" traveltime="9.35" overlapTraveltime="9.55" density="4.70" laneDensity="1.57" occupancy="0.76" waitingTime="0.00" timeLoss="24.67" speed="22.93" speedRelative="0.83" departed="0" arrived="15" entered="15" left="0" laneChangedFrom="2" laneChangedTo="2"/>
        <edge id="975270186" sampledSeconds="0.00" departed="0" arrived="0" entered="0" left="0" laneChangedFrom="0" laneChangedTo="0"/>
        <edge id="E0" sampledSeconds="1030.15" traveltime="48.08" overlapTraveltime="49.06" density="21.74" laneDensity="10.87" occupancy="5.31" waitingTime="323.00" timeLoss="526.49" speed="6.91" speedRelative="0.50" departed="24" arrived="0" entered="0" left="12" laneChangedFrom="16" laneChangedTo="16"/>
    </interval>
</meandata>
