<?xml version="1.0" encoding="UTF-8"?>

<!-- generated on 2026-03-28 10:17:57 by Eclipse SUMO netedit Version 1.24.0
<neteditConfiguration xmlns:xsi="http://www.w3.org/2001/XMLSchema-instance" xsi:noNamespaceSchemaLocation="http://sumo.dlr.de/xsd/neteditConfiguration.xsd">

    <input>
        <sumocfg-file value="C:\Users\ASUS\Sumo\2026-03-28-09-38-34\osm.sumocfg"/>
        <additional-files value="C:\Users\ASUS\Sumo\2026-03-28-09-38-34\osm.poly.xml.gz"/>
        <route-files value="C:\Users\ASUS\Sumo\2026-03-28-09-19-13\road.rou.xml"/>
        <meandata-files value="C:\Users\ASUS\Sumo\2026-03-28-09-38-34\output.add.xml"/>
        <sumo-net-file value="C:\Users\ASUS\Sumo\2026-03-28-09-38-34\osm.net.xml.gz"/>
    </input>

    <output>
        <output-file value="C:\Users\ASUS\Sumo\2026-03-28-09-38-34\osm.net.xml.gz"/>
        <output.street-names value="true"/>
    </output>

    <processing>
        <geometry.min-radius.fix.railways value="false"/>
        <geometry.avoid-overlap value="false"/>
        <geometry.max-grade.fix value="false"/>
        <offset.disable-normalization value="true"/>
        <lefthand value="1"/>
    </processing>

    <junctions>
        <no-turnarounds value="true"/>
        <junctions.corner-detail value="5"/>
        <junctions.limit-turn-speed value="5.50"/>
        <rectangular-lane-cut value="0"/>
    </junctions>

    <pedestrian>
        <walkingareas value="0"/>
    </pedestrian>

    <netedit>
        <ignore.routeelements value="false"/>
    </netedit>

</neteditConfiguration>
-->

<net version="1.20" junctionCornerDetail="5" lefthand="true" limitTurnSpeed="5.50" avoidOverlap="0" xmlns:xsi="http://www.w3.org/2001/XMLSchema-instance" xsi:noNamespaceSchemaLocation="http://sumo.dlr.de/xsd/net_file.xsd">

    <location netOffset="-669659.08,-1518240.95" convBoundary="-132.03,-85.85,310.85,386.85" origBoundary="100.569069,13.728392,100.572109,13.731117" projParameter="+proj=utm +zone=47 +ellps=WGS84 +datum=WGS84 +units=m +no_defs"/>

    <type id="highway.primary" priority="12" numLanes="2" speed="27.78" disallow="tram rail_urban rail rail_electric rail_fast ship container cable_car subway aircraft wheelchair scooter drone" oneway="0"/>
    <type id="highway.residential" priority="3" numLanes="1" speed="13.89" disallow="tram rail_urban rail rail_electric rail_fast ship container cable_car subway aircraft wheelchair scooter drone" oneway="0"/>
    <type id="highway.tertiary" priority="10" numLanes="1" speed="22.22" disallow="tram rail_urban rail rail_electric rail_fast ship container cable_car subway aircraft wheelchair scooter drone" oneway="0"/>

    <edge id=":11091809684_0" function="internal">
        <lane id=":11091809684_0_0" index="0" disallow="tram rail_urban rail rail_electric rail_fast ship container cable_car subway aircraft wheelchair scooter drone" speed="3.65" length="4.67" shape="104.68,126.33 103.42,125.62 102.53,125.62 102.00,126.34 101.82,127.77"/>
    </edge>
    <edge id=":11930148383_0" function="internal">
        <lane id=":11930148383_0_0" index="0" disallow="tram rail_urban rail rail_electric rail_fast ship container cable_car subway aircraft wheelchair scooter drone" speed="22.22" length="0.10" shape="172.24,17.47 172.24,17.47"/>
    </edge>
    <edge id=":11930148383_1" function="internal">
        <lane id=":11930148383_1_0" index="0" disallow="tram rail_urban rail rail_electric rail_fast ship container cable_car subway aircraft wheelchair scooter drone" speed="22.22" length="0.10" shape="169.30,18.73 169.30,18.73"/>
    </edge>
    <edge id=":12109915684_0" function="internal">
        <lane id=":12109915684_0_0" index="0" disallow="tram rail_urban rail rail_electric rail_fast ship container cable_car subway aircraft wheelchair scooter drone" speed="6.58" length="9.13" shape="174.54,258.70 172.03,258.88 170.05,258.24 168.61,256.77 167.70,254.47"/>
    </edge>
    <edge id=":12109915684_1" function="internal">
        <lane id=":12109915684_1_0" index="0" disallow="tram rail_urban rail rail_electric rail_fast ship container cable_car subway aircraft wheelchair scooter drone" speed="7.97" length="14.27" shape="174.54,258.70 170.87,260.06 168.53,262.27 167.54,265.32 167.89,269.23"/>
    </edge>
    <edge id=":12109915684_2" function="internal">
        <lane id=":12109915684_2_0" index="0" disallow="tram rail_urban rail rail_electric rail_fast ship container cable_car subway aircraft wheelchair scooter drone" speed="3.65" length="4.67" shape="174.54,258.70 173.54,259.73 173.32,260.60 173.88,261.30 175.22,261.83"/>
    </edge>
    <edge id=":12109915684_3" function="internal">
        <lane id=":12109915684_3_0" index="0" disallow="tram rail_urban rail rail_electric rail_fast ship container cable_car subway aircraft wheelchair scooter drone" speed="6.47" length="9.03" shape="171.00,268.49 170.78,266.02 171.41,264.09 172.89,262.69 175.22,261.83"/>
    </edge>
    <edge id=":12109915684_4" function="internal">
        <lane id=":12109915684_4_0" index="0" disallow="tram rail_urban rail rail_electric rail_fast ship container cable_car subway aircraft wheelchair scooter drone" speed="8.33" length="14.40" shape="171.00,268.49 167.70,254.47"/>
    </edge>
    <edge id=":12109915684_5" function="internal">
        <lane id=":12109915684_5_0" index="0" disallow="tram rail_urban rail rail_electric rail_fast ship container cable_car subway aircraft wheelchair scooter drone" speed="3.65" length="1.44" shape="171.00,268.49 169.95,267.51"/>
    </edge>
    <edge id=":12109915684_9" function="internal">
        <lane id=":12109915684_9_0" index="0" disallow="tram rail_urban rail rail_electric rail_fast ship container cable_car subway aircraft wheelchair scooter drone" speed="3.65" length="3.23" shape="169.95,267.51 169.08,267.30 168.39,267.88 167.89,269.23"/>
    </edge>
    <edge id=":12109915684_6" function="internal">
        <lane id=":12109915684_6_0" index="0" disallow="tram rail_urban rail rail_electric rail_fast ship container cable_car subway aircraft wheelchair scooter drone" speed="8.33" length="14.40" shape="164.59,255.21 167.89,269.23"/>
    </edge>
    <edge id=":12109915684_7" function="internal">
        <lane id=":12109915684_7_0" index="0" disallow="tram rail_urban rail rail_electric rail_fast ship container cable_car subway aircraft wheelchair scooter drone" speed="8.06" length="4.04" shape="164.59,255.21 166.00,258.80 166.12,258.93"/>
    </edge>
    <edge id=":12109915684_8" function="internal">
        <lane id=":12109915684_8_0" index="0" disallow="tram rail_urban rail rail_electric rail_fast ship container cable_car subway aircraft wheelchair scooter drone" speed="3.65" length="1.44" shape="164.59,255.21 165.64,256.19"/>
    </edge>
    <edge id=":12109915684_10" function="internal">
        <lane id=":12109915684_10_0" index="0" disallow="tram rail_urban rail rail_electric rail_fast ship container cable_car subway aircraft wheelchair scooter drone" speed="8.06" length="10.18" shape="166.12,258.93 168.24,261.10 171.31,262.11 175.22,261.83"/>
    </edge>
    <edge id=":12109915684_11" function="internal">
        <lane id=":12109915684_11_0" index="0" disallow="tram rail_urban rail rail_electric rail_fast ship container cable_car subway aircraft wheelchair scooter drone" speed="3.65" length="3.23" shape="165.64,256.19 166.51,256.40 167.20,255.83 167.70,254.47"/>
    </edge>
    <edge id=":12109915685_0" function="internal">
        <lane id=":12109915685_0_0" index="0" disallow="tram rail_urban rail rail_electric rail_fast ship container cable_car subway aircraft wheelchair scooter drone" speed="3.65" length="4.67" shape="204.70,255.51 205.70,254.48 205.92,253.61 205.37,252.92 204.02,252.39"/>
    </edge>
    <edge id=":12662140062_0" function="internal">
        <lane id=":12662140062_0_0" index="0" disallow="tram rail_urban rail rail_electric rail_fast ship container cable_car subway aircraft wheelchair scooter drone" speed="27.78" length="0.30" shape="249.90,110.15 250.15,109.96"/>
        <lane id=":12662140062_0_1" index="1" disallow="tram rail_urban rail rail_electric rail_fast ship container cable_car subway aircraft wheelchair scooter drone" speed="27.78" length="0.30" shape="248.02,107.56 248.26,107.38"/>
        <lane id=":12662140062_0_2" index="2" disallow="tram rail_urban rail rail_electric rail_fast ship container cable_car subway aircraft wheelchair scooter drone" speed="27.78" length="0.30" shape="246.14,104.97 246.37,104.80"/>
    </edge>
    <edge id=":12706388896_0" function="internal">
        <lane id=":12706388896_0_0" index="0" disallow="tram rail_urban rail rail_electric rail_fast ship container cable_car subway aircraft wheelchair scooter drone" speed="8.60" length="11.45" shape="130.69,204.43 130.20,200.93 130.43,198.01 131.39,195.66 133.07,193.89"/>
    </edge>
    <edge id=":12706388896_1" function="internal">
        <lane id=":12706388896_1_0" index="0" disallow="tram rail_urban rail rail_electric rail_fast ship container cable_car subway aircraft wheelchair scooter drone" speed="5.81" length="9.14" shape="120.94,202.62 123.31,201.38 125.20,201.38 126.62,202.63 127.57,205.14"/>
    </edge>
    <edge id=":12706388896_2" function="internal">
        <lane id=":12706388896_2_0" index="0" disallow="tram rail_urban rail rail_electric rail_fast ship container cable_car subway aircraft wheelchair scooter drone" speed="27.78" length="14.93" shape="120.94,202.62 133.07,193.89"/>
        <lane id=":12706388896_2_1" index="1" disallow="tram rail_urban rail rail_electric rail_fast ship container cable_car subway aircraft wheelchair scooter drone" speed="27.78" length="14.93" shape="119.08,200.02 131.20,191.30"/>
        <lane id=":12706388896_2_2" index="2" disallow="tram rail_urban rail rail_electric rail_fast ship container cable_car subway aircraft wheelchair scooter drone" speed="27.78" length="14.93" shape="117.21,197.42 129.32,188.71"/>
    </edge>
    <edge id=":1867150494_0" function="internal">
        <lane id=":1867150494_0_0" index="0" disallow="tram rail_urban rail rail_electric rail_fast ship container cable_car subway aircraft wheelchair scooter drone" speed="6.11" length="9.06" shape="201.00,122.99 198.73,124.18 196.76,124.24 195.10,123.19 193.74,121.02"/>
    </edge>
    <edge id=":1867150494_1" function="internal">
        <lane id=":1867150494_1_0" index="0" disallow="tram rail_urban rail rail_electric rail_fast ship container cable_car subway aircraft wheelchair scooter drone" speed="27.78" length="14.56" shape="201.00,122.99 189.18,131.46"/>
        <lane id=":1867150494_1_1" index="1" disallow="tram rail_urban rail rail_electric rail_fast ship container cable_car subway aircraft wheelchair scooter drone" speed="27.78" length="14.56" shape="202.87,125.59 191.04,134.07"/>
        <lane id=":1867150494_1_2" index="2" disallow="tram rail_urban rail rail_electric rail_fast ship container cable_car subway aircraft wheelchair scooter drone" speed="27.78" length="14.56" shape="204.74,128.19 192.90,136.68"/>
    </edge>
    <edge id=":1867150494_4" function="internal">
        <lane id=":1867150494_4_0" index="0" disallow="tram rail_urban rail rail_electric rail_fast ship container cable_car subway aircraft wheelchair scooter drone" speed="7.41" length="10.16" shape="190.81,122.32 191.72,125.17 191.75,127.64 190.91,129.74 189.18,131.46"/>
    </edge>
    <edge id=":1867150494_5" function="internal">
        <lane id=":1867150494_5_0" index="0" disallow="tram rail_urban rail rail_electric rail_fast ship container cable_car subway aircraft wheelchair scooter drone" speed="3.65" length="4.67" shape="190.81,122.32 192.03,123.10 192.92,123.14 193.49,122.45 193.74,121.02"/>
    </edge>
    <edge id=":267086992_0" function="internal">
        <lane id=":267086992_0_0" index="0" disallow="tram rail_urban rail rail_electric rail_fast ship container cable_car subway aircraft wheelchair scooter drone" speed="22.22" length="14.38" shape="183.67,43.99 177.95,30.80"/>
    </edge>
    <edge id=":267086992_1" function="internal">
        <lane id=":267086992_1_0" index="0" disallow="tram rail_urban rail rail_electric rail_fast ship container cable_car subway aircraft wheelchair scooter drone" speed="7.88" length="4.01" shape="183.67,43.99 181.56,40.59"/>
    </edge>
    <edge id=":267086992_2" function="internal">
        <lane id=":267086992_2_0" index="0" disallow="tram rail_urban rail rail_electric rail_fast ship container cable_car subway aircraft wheelchair scooter drone" speed="3.65" length="1.44" shape="183.67,43.99 182.46,43.21"/>
    </edge>
    <edge id=":267086992_9" function="internal">
        <lane id=":267086992_9_0" index="0" disallow="tram rail_urban rail rail_electric rail_fast ship container cable_car subway aircraft wheelchair scooter drone" speed="7.88" length="10.47" shape="181.56,40.59 178.89,38.77 175.67,38.53 171.89,39.87"/>
    </edge>
    <edge id=":267086992_10" function="internal">
        <lane id=":267086992_10_0" index="0" disallow="tram rail_urban rail rail_electric rail_fast ship container cable_car subway aircraft wheelchair scooter drone" speed="3.65" length="3.23" shape="182.46,43.21 181.56,43.17 180.99,43.85 180.74,45.27"/>
    </edge>
    <edge id=":267086992_3" function="internal">
        <lane id=":267086992_3_0" index="0" disallow="tram rail_urban rail rail_electric rail_fast ship container cable_car subway aircraft wheelchair scooter drone" speed="6.36" length="9.04" shape="173.39,42.70 175.74,41.86 177.75,42.01 179.42,43.15 180.74,45.27"/>
    </edge>
    <edge id=":267086992_4" function="internal">
        <lane id=":267086992_4_0" index="0" disallow="tram rail_urban rail rail_electric rail_fast ship container cable_car subway aircraft wheelchair scooter drone" speed="8.27" length="14.29" shape="173.39,42.70 176.63,40.40 178.47,37.65 178.91,34.45 177.95,30.80"/>
    </edge>
    <edge id=":267086992_5" function="internal">
        <lane id=":267086992_5_0" index="0" disallow="tram rail_urban rail rail_electric rail_fast ship container cable_car subway aircraft wheelchair scooter drone" speed="3.65" length="4.67" shape="173.39,42.70 174.07,41.44 174.06,40.54 173.33,40.02 171.89,39.87"/>
    </edge>
    <edge id=":267086992_6" function="internal">
        <lane id=":267086992_6_0" index="0" disallow="tram rail_urban rail rail_electric rail_fast ship container cable_car subway aircraft wheelchair scooter drone" speed="6.83" length="9.43" shape="175.01,32.06 175.62,34.43 175.31,36.53 174.07,38.34 171.89,39.87"/>
    </edge>
    <edge id=":267086992_7" function="internal">
        <lane id=":267086992_7_0" index="0" disallow="tram rail_urban rail rail_electric rail_fast ship container cable_car subway aircraft wheelchair scooter drone" speed="22.22" length="14.40" shape="175.01,32.06 180.74,45.27"/>
    </edge>
    <edge id=":267086992_8" function="internal">
        <lane id=":267086992_8_0" index="0" disallow="tram rail_urban rail rail_electric rail_fast ship container cable_car subway aircraft wheelchair scooter drone" speed="3.65" length="1.44" shape="175.01,32.06 176.22,32.85"/>
    </edge>
    <edge id=":267086992_11" function="internal">
        <lane id=":267086992_11_0" index="0" disallow="tram rail_urban rail rail_electric rail_fast ship container cable_car subway aircraft wheelchair scooter drone" speed="3.65" length="3.23" shape="176.22,32.85 177.11,32.90 177.69,32.22 177.95,30.80"/>
    </edge>
    <edge id=":272456498_0" function="internal">
        <lane id=":272456498_0_0" index="0" disallow="tram rail_urban rail rail_electric rail_fast ship container cable_car subway aircraft wheelchair scooter drone" speed="27.78" length="0.30" shape="290.21,81.34 290.47,81.16"/>
        <lane id=":272456498_0_1" index="1" disallow="tram rail_urban rail rail_electric rail_fast ship container cable_car subway aircraft wheelchair scooter drone" speed="27.78" length="0.30" shape="288.37,78.73 288.61,78.55"/>
        <lane id=":272456498_0_2" index="2" disallow="tram rail_urban rail rail_electric rail_fast ship container cable_car subway aircraft wheelchair scooter drone" speed="27.78" length="0.30" shape="286.53,76.11 286.75,75.95"/>
    </edge>
    <edge id=":275514818_0" function="internal">
        <lane id=":275514818_0_0" index="0" disallow="tram rail_urban rail rail_electric rail_fast ship container cable_car subway aircraft wheelchair scooter drone" speed="8.41" length="11.25" shape="152.08,189.01 151.54,185.61 151.74,182.75 152.69,180.44 154.38,178.69"/>
    </edge>
    <edge id=":275514818_1" function="internal">
        <lane id=":275514818_1_0" index="0" disallow="tram rail_urban rail rail_electric rail_fast ship container cable_car subway aircraft wheelchair scooter drone" speed="3.65" length="4.67" shape="152.08,189.01 151.02,188.04 150.14,187.85 149.47,188.43 148.98,189.79"/>
    </edge>
    <edge id=":275514818_2" function="internal">
        <lane id=":275514818_2_0" index="0" disallow="tram rail_urban rail rail_electric rail_fast ship container cable_car subway aircraft wheelchair scooter drone" speed="5.85" length="9.12" shape="142.27,187.31 144.63,186.09 146.53,186.09 147.98,187.33 148.98,189.79"/>
    </edge>
    <edge id=":275514818_3" function="internal">
        <lane id=":275514818_3_0" index="0" disallow="tram rail_urban rail rail_electric rail_fast ship container cable_car subway aircraft wheelchair scooter drone" speed="27.78" length="14.86" shape="142.27,187.31 154.38,178.69"/>
        <lane id=":275514818_3_1" index="1" disallow="tram rail_urban rail rail_electric rail_fast ship container cable_car subway aircraft wheelchair scooter drone" speed="27.78" length="14.86" shape="140.42,184.70 152.52,176.09"/>
        <lane id=":275514818_3_2" index="2" disallow="tram rail_urban rail rail_electric rail_fast ship container cable_car subway aircraft wheelchair scooter drone" speed="27.78" length="14.86" shape="138.57,182.09 150.66,173.48"/>
    </edge>
    <edge id=":280389421_0" function="internal">
        <lane id=":280389421_0_0" index="0" disallow="tram rail_urban rail rail_electric rail_fast ship container cable_car subway aircraft wheelchair scooter drone" speed="6.08" length="7.77" shape="171.18,290.31 173.17,289.54 174.43,288.32 174.97,286.65 174.78,284.53"/>
    </edge>
    <edge id=":280389421_1" function="internal">
        <lane id=":280389421_1_0" index="0" disallow="tram rail_urban rail rail_electric rail_fast ship container cable_car subway aircraft wheelchair scooter drone" speed="3.90" length="2.59" shape="171.67,285.27 171.73,285.97 171.55,286.53 171.13,286.94 170.47,287.19"/>
    </edge>
    <edge id=":280389425_0" function="internal">
        <lane id=":280389425_0_0" index="0" disallow="tram rail_urban rail rail_electric rail_fast ship container cable_car subway aircraft wheelchair scooter drone" speed="6.49" length="9.03" shape="155.51,290.63 153.04,290.84 151.10,290.20 149.70,288.73 148.83,286.41"/>
    </edge>
    <edge id=":280389425_1" function="internal">
        <lane id=":280389425_1_0" index="0" disallow="tram rail_urban rail rail_electric rail_fast ship container cable_car subway aircraft wheelchair scooter drone" speed="13.89" length="14.40" shape="155.51,290.63 141.47,293.84"/>
    </edge>
    <edge id=":280389425_2" function="internal">
        <lane id=":280389425_2_0" index="0" disallow="tram rail_urban rail rail_electric rail_fast ship container cable_car subway aircraft wheelchair scooter drone" speed="3.65" length="1.44" shape="155.51,290.63 154.52,291.68"/>
    </edge>
    <edge id=":280389425_9" function="internal">
        <lane id=":280389425_9_0" index="0" disallow="tram rail_urban rail rail_electric rail_fast ship container cable_car subway aircraft wheelchair scooter drone" speed="3.65" length="3.23" shape="154.52,291.68 154.31,292.55 154.88,293.24 156.22,293.75"/>
    </edge>
    <edge id=":280389425_3" function="internal">
        <lane id=":280389425_3_0" index="0" disallow="tram rail_urban rail rail_electric rail_fast ship container cable_car subway aircraft wheelchair scooter drone" speed="13.89" length="14.41" shape="142.18,296.96 156.22,293.75"/>
    </edge>
    <edge id=":280389425_4" function="internal">
        <lane id=":280389425_4_0" index="0" disallow="tram rail_urban rail rail_electric rail_fast ship container cable_car subway aircraft wheelchair scooter drone" speed="8.03" length="4.06" shape="142.18,296.96 145.80,295.57 145.93,295.45"/>
    </edge>
    <edge id=":280389425_5" function="internal">
        <lane id=":280389425_5_0" index="0" disallow="tram rail_urban rail rail_electric rail_fast ship container cable_car subway aircraft wheelchair scooter drone" speed="3.65" length="1.44" shape="142.18,296.96 143.17,295.92"/>
    </edge>
    <edge id=":280389425_10" function="internal">
        <lane id=":280389425_10_0" index="0" disallow="tram rail_urban rail rail_electric rail_fast ship container cable_car subway aircraft wheelchair scooter drone" speed="8.03" length="10.14" shape="145.93,295.45 148.11,293.35 149.12,290.29 148.83,286.41"/>
    </edge>
    <edge id=":280389425_11" function="internal">
        <lane id=":280389425_11_0" index="0" disallow="tram rail_urban rail rail_electric rail_fast ship container cable_car subway aircraft wheelchair scooter drone" speed="3.65" length="3.23" shape="143.17,295.92 143.38,295.05 142.81,294.36 141.47,293.84"/>
    </edge>
    <edge id=":280389425_6" function="internal">
        <lane id=":280389425_6_0" index="0" disallow="tram rail_urban rail rail_electric rail_fast ship container cable_car subway aircraft wheelchair scooter drone" speed="6.54" length="9.07" shape="145.70,287.09 145.89,289.58 145.25,291.53 143.77,292.95 141.47,293.84"/>
    </edge>
    <edge id=":280389425_7" function="internal">
        <lane id=":280389425_7_0" index="0" disallow="tram rail_urban rail rail_electric rail_fast ship container cable_car subway aircraft wheelchair scooter drone" speed="7.99" length="14.23" shape="145.70,287.09 147.07,290.75 149.28,293.08 152.33,294.08 156.22,293.75"/>
    </edge>
    <edge id=":280389425_8" function="internal">
        <lane id=":280389425_8_0" index="0" disallow="tram rail_urban rail rail_electric rail_fast ship container cable_car subway aircraft wheelchair scooter drone" speed="3.65" length="4.67" shape="145.70,287.09 146.74,288.09 147.61,288.31 148.30,287.75 148.83,286.41"/>
    </edge>
    <edge id=":3477079540_0" function="internal">
        <lane id=":3477079540_0_0" index="0" disallow="tram rail_urban rail rail_electric rail_fast ship container cable_car subway aircraft wheelchair scooter drone" speed="3.65" length="4.67" shape="122.39,298.18 121.39,299.23 121.18,300.09 121.75,300.79 123.09,301.30"/>
    </edge>
    <edge id=":4484624701_0" function="internal">
        <lane id=":4484624701_0_0" index="0" disallow="tram rail_urban rail rail_electric rail_fast ship container cable_car subway aircraft wheelchair scooter drone" speed="27.78" length="0.30" shape="169.17,145.74 168.93,145.91"/>
        <lane id=":4484624701_0_1" index="1" disallow="tram rail_urban rail rail_electric rail_fast ship container cable_car subway aircraft wheelchair scooter drone" speed="27.78" length="0.30" shape="171.03,148.34 170.79,148.52"/>
        <lane id=":4484624701_0_2" index="2" disallow="tram rail_urban rail rail_electric rail_fast ship container cable_car subway aircraft wheelchair scooter drone" speed="27.78" length="0.30" shape="172.89,150.95 172.65,151.12"/>
    </edge>
    <edge id=":4489959604_0" function="internal">
        <lane id=":4489959604_0_0" index="0" disallow="tram rail_urban rail rail_electric rail_fast ship container cable_car subway aircraft wheelchair scooter drone" speed="27.78" length="0.28" shape="41.96,258.71 42.03,258.66"/>
        <lane id=":4489959604_0_1" index="1" disallow="tram rail_urban rail rail_electric rail_fast ship container cable_car subway aircraft wheelchair scooter drone" speed="27.78" length="0.28" shape="39.97,256.21 40.19,256.04"/>
        <lane id=":4489959604_0_2" index="2" disallow="tram rail_urban rail rail_electric rail_fast ship container cable_car subway aircraft wheelchair scooter drone" speed="27.78" length="0.28" shape="37.98,253.70 38.35,253.42"/>
    </edge>
    <edge id=":7130478647_0" function="internal">
        <lane id=":7130478647_0_0" index="0" disallow="tram rail_urban rail rail_electric rail_fast ship container cable_car subway aircraft wheelchair scooter drone" speed="27.78" length="0.28" shape="33.50,240.93 33.12,241.21"/>
        <lane id=":7130478647_0_1" index="1" disallow="tram rail_urban rail rail_electric rail_fast ship container cable_car subway aircraft wheelchair scooter drone" speed="27.78" length="0.28" shape="35.35,243.54 35.12,243.71"/>
        <lane id=":7130478647_0_2" index="2" disallow="tram rail_urban rail rail_electric rail_fast ship container cable_car subway aircraft wheelchair scooter drone" speed="27.78" length="0.28" shape="37.19,246.15 37.12,246.21"/>
    </edge>
    <edge id=":8064509280_0" function="internal">
        <lane id=":8064509280_0_0" index="0" disallow="tram rail_urban rail rail_electric rail_fast ship container cable_car subway aircraft wheelchair scooter drone" speed="27.78" length="0.30" shape="186.46,155.78 186.68,155.62"/>
        <lane id=":8064509280_0_1" index="1" disallow="tram rail_urban rail rail_electric rail_fast ship container cable_car subway aircraft wheelchair scooter drone" speed="27.78" length="0.30" shape="184.60,153.18 184.84,153.00"/>
        <lane id=":8064509280_0_2" index="2" disallow="tram rail_urban rail rail_electric rail_fast ship container cable_car subway aircraft wheelchair scooter drone" speed="27.78" length="0.30" shape="182.74,150.57 183.00,150.39"/>
    </edge>
    <edge id=":8064579767_0" function="internal">
        <lane id=":8064579767_0_0" index="0" disallow="tram rail_urban rail rail_electric rail_fast ship container cable_car subway aircraft wheelchair scooter drone" speed="3.65" length="4.67" shape="165.06,0.72 163.85,-0.07 162.96,-0.12 162.38,0.56 162.12,1.98"/>
    </edge>
    <edge id=":8609968183_0" function="internal">
        <lane id=":8609968183_0_0" index="0" disallow="tram rail_urban rail rail_electric rail_fast ship container cable_car subway aircraft wheelchair scooter drone" speed="27.78" length="0.28" shape="265.73,98.52 265.90,98.40"/>
        <lane id=":8609968183_0_1" index="1" disallow="tram rail_urban rail rail_electric rail_fast ship container cable_car subway aircraft wheelchair scooter drone" speed="27.78" length="0.28" shape="263.84,95.94 264.06,95.78"/>
        <lane id=":8609968183_0_2" index="2" disallow="tram rail_urban rail rail_electric rail_fast ship container cable_car subway aircraft wheelchair scooter drone" speed="27.78" length="0.28" shape="261.94,93.36 262.23,93.16"/>
    </edge>
    <edge id=":cluster_11091809682_4475556544_0" function="internal">
        <lane id=":cluster_11091809682_4475556544_0_0" index="0" disallow="tram rail_urban rail rail_electric rail_fast ship container cable_car subway aircraft wheelchair scooter drone" speed="6.46" length="9.03" shape="135.87,169.48 133.66,170.62 131.64,170.77 129.79,169.92 128.11,168.09"/>
    </edge>
    <edge id=":cluster_11091809682_4475556544_1" function="internal">
        <lane id=":cluster_11091809682_4475556544_1_0" index="0" disallow="tram rail_urban rail rail_electric rail_fast ship container cable_car subway aircraft wheelchair scooter drone" speed="27.78" length="14.46" shape="135.87,169.48 124.05,177.73"/>
        <lane id=":cluster_11091809682_4475556544_1_1" index="1" disallow="tram rail_urban rail rail_electric rail_fast ship container cable_car subway aircraft wheelchair scooter drone" speed="27.78" length="14.46" shape="137.73,172.08 125.87,180.36"/>
        <lane id=":cluster_11091809682_4475556544_1_2" index="2" disallow="tram rail_urban rail rail_electric rail_fast ship container cable_car subway aircraft wheelchair scooter drone" speed="27.78" length="14.46" shape="139.59,174.69 127.70,182.99"/>
    </edge>
    <edge id=":cluster_11091809682_4475556544_4" function="internal">
        <lane id=":cluster_11091809682_4475556544_4_0" index="0" disallow="tram rail_urban rail rail_electric rail_fast ship container cable_car subway aircraft wheelchair scooter drone" speed="6.55" length="9.07" shape="125.47,169.88 126.56,172.12 126.69,174.18 125.85,176.05 124.05,177.73"/>
    </edge>
    <edge id=":cluster_11091809682_4475556544_5" function="internal">
        <lane id=":cluster_11091809682_4475556544_5_0" index="0" disallow="tram rail_urban rail rail_electric rail_fast ship container cable_car subway aircraft wheelchair scooter drone" speed="3.65" length="4.67" shape="125.47,169.88 126.80,170.43 127.69,170.31 128.13,169.53 128.11,168.09"/>
    </edge>
    <edge id=":cluster_272206252_4123769771_0" function="internal">
        <lane id=":cluster_272206252_4123769771_0_0" index="0" disallow="tram rail_urban rail rail_electric rail_fast ship container cable_car subway aircraft wheelchair scooter drone" speed="27.78" length="15.30" shape="221.04,131.45 233.46,122.41"/>
        <lane id=":cluster_272206252_4123769771_0_1" index="1" disallow="tram rail_urban rail rail_electric rail_fast ship container cable_car subway aircraft wheelchair scooter drone" speed="27.78" length="15.30" shape="219.17,128.85 231.55,119.85"/>
        <lane id=":cluster_272206252_4123769771_0_2" index="2" disallow="tram rail_urban rail rail_electric rail_fast ship container cable_car subway aircraft wheelchair scooter drone" speed="27.78" length="15.30" shape="217.31,126.26 229.63,117.29"/>
    </edge>
    <edge id=":cluster_272206252_4123769771_3" function="internal">