<?xml version="1.0" encoding="UTF-8"?>

<!-- generated on 2026-03-28 10:19:15 by Eclipse SUMO GUI Version 1.24.0
<sumoConfiguration xmlns:xsi="http://www.w3.org/2001/XMLSchema-instance" xsi:noNamespaceSchemaLocation="http://sumo.dlr.de/xsd/sumoConfiguration.xsd">

    <input>
        <net-file value="C:\Users\ASUS\Sumo\2026-03-28-09-38-34\osm.net.xml.gz"/>
        <route-files value="C:\Users\ASUS\Sumo\2026-03-28-09-38-34\../2026-03-28-09-19-13/road.rou.xml"/>
        <additional-files value="C:\Users\ASUS\Sumo\2026-03-28-09-38-34\osm.poly.xml.gz,C:\Users\ASUS\Sumo\2026-03-28-09-38-34\output.add.xml"/>
    </input>

    <output>
        <tripinfo-output value="C:\Users\ASUS\Sumo\2026-03-28-09-38-34\tripinfos.xml"/>
        <statistic-output value="C:\Users\ASUS\Sumo\2026-03-28-09-38-34\stats.xml"/>
    </output>

    <processing>
        <ignore-route-errors value="true"/>
        <tls.actuated.jam-threshold value="30"/>
    </processing>

    <routing>
        <device.rerouting.adaptation-steps value="18"/>
        <device.rerouting.adaptation-interval value="10"/>
    </routing>

    <report>
        <verbose value="true"/>
        <duration-log.statistics value="true"/>
        <no-step-log value="true"/>
    </report>

    <gui_only>
        <gui-settings-file value="C:\Users\ASUS\Sumo\2026-03-28-09-38-34\osm.view.xml"/>
    </gui_only>

</sumoConfiguration>
-->

<tripinfos xmlns:xsi="http://www.w3.org/2001/XMLSchema-instance" xsi:noNamespaceSchemaLocation="http://sumo.dlr.de/xsd/tripinfo_file.xsd">
    <tripinfo id="f_0.0" depart="0.00" departLane="693449409#0_2" departPos="5.10" departSpeed="0.00" departDelay="0.00" arrival="27.00" arrivalLane="459784945#3_2" arrivalPos="27.33" arrivalSpeed="28.54" duration="27.00" routeLength="538.07" waitingTime="0.00" waitingCount="0" stopTime="0.00" timeLoss="8.15" rerouteNo="0" devices="tripinfo_f_0.0 routing_f_0.0" vType="DEFAULT_VEHTYPE" speedFactor="1.06" vaporized=""/>
    <tripinfo id="f_0.1" depart="6.00" departLane="693449409#0_2" departPos="5.10" departSpeed="0.00" departDelay="0.00" arrival="32.00" arrivalLane="459784945#3_1" arrivalPos="27.33" arrivalSpeed="27.90" duration="26.00" routeLength="538.07" waitingTime="0.00" waitingCount="0" stopTime="0.00" timeLoss="6.70" rerouteNo="0" devices="tripinfo_f_0.1 routing_f_0.1" vType="DEFAULT_VEHTYPE" speedFactor="1.03" vaporized=""/>
    <tripinfo id="f_1.0" depart="0.00" departLane="-156261434#2_0" departPos="5.10" departSpeed="0.00" departDelay="0.00" arrival="34.00" arrivalLane="939141447#1_2" arrivalPos="214.04" arrivalSpeed="25.02" duration="34.00" routeLength="558.04" waitingTime="0.00" waitingCount="0" stopTime="0.00" timeLoss="9.55" rerouteNo="0" devices="tripinfo_f_1.0 routing_f_1.0" vType="DEFAULT_VEHTYPE" speedFactor="0.94" vaporized=""/>
    <tripinfo id="f_0.2" depart="12.00" departLane="693449409#0_0" departPos="5.10" departSpeed="0.00" departDelay="0.00" arrival="40.00" arrivalLane="459784945#3_2" arrivalPos="27.33" arrivalSpeed="23.42" duration="28.00" routeLength="538.07" waitingTime="0.00" waitingCount="0" stopTime="0.00" timeLoss="5.94" rerouteNo="0" devices="tripinfo_f_0.2 routing_f_0.2" vType="DEFAULT_VEHTYPE" speedFactor="0.89" vaporized=""/>
    <tripinfo id="f_1.1" depart="9.00" departLane="-156261434#2_0" departPos="5.10" departSpeed="0.00" departDelay="0.00" arrival="46.00" arrivalLane="939141447#1_0" arrivalPos="214.04" arrivalSpeed="21.97" duration="37.00" routeLength="552.29" waitingTime="0.00" waitingCount="0" stopTime="0.00" timeLoss="10.21" rerouteNo="0" devices="tripinfo_f_1.1 routing_f_1.1" vType="DEFAULT_VEHTYPE" speedFactor="0.83" vaporized=""/>
    <tripinfo id="f_0.3" depart="18.00" departLane="693449409#0_1" departPos="5.10" departSpeed="0.00" departDelay="0.00" arrival="46.00" arrivalLane="459784945#3_1" arrivalPos="27.33" arrivalSpeed="25.40" duration="28.00" routeLength="538.07" waitingTime="0.00" waitingCount="0" stopTime="0.00" timeLoss="6.88" rerouteNo="0" devices="tripinfo_f_0.3 routing_f_0.3" vType="DEFAULT_VEHTYPE" speedFactor="0.94" vaporized=""/>
    <tripinfo id="f_0.4" depart="24.00" departLane="693449409#0_2" departPos="5.10" departSpeed="0.00" departDelay="0.00" arrival="50.00" arrivalLane="459784945#3_0" arrivalPos="27.33" arrivalSpeed="27.99" duration="26.00" routeLength="538.07" waitingTime="0.00" waitingCount="0" stopTime="0.00" timeLoss="7.42" rerouteNo="0" devices="tripinfo_f_0.4 routing_f_0.4" vType="DEFAULT_VEHTYPE" speedFactor="1.05" vaporized=""/>
    <tripinfo id="f_2.0" depart="0.00" departLane="E0_1" departPos="0.00" departSpeed="0.00" departDelay="0.00" arrival="68.00" arrivalLane="-340474222_0" arrivalPos="19.57" arrivalSpeed="11.06" duration="68.00" routeLength="528.48" waitingTime="15.00" waitingCount="1" stopTime="0.00" timeLoss="30.14" rerouteNo="0" devices="tripinfo_f_2.0 routing_f_2.0" vType="DEFAULT_VEHTYPE" speedFactor="1.01" vaporized=""/>
    <tripinfo id="f_3.1" depart="18.00" departLane="E0_1" departPos="5.10" departSpeed="0.00" departDelay="0.00" arrival="68.00" arrivalLane="939141447#1_1" arrivalPos="214.04" arrivalSpeed="27.66" duration="50.00" routeLength="588.57" waitingTime="2.00" waitingCount="1" stopTime="0.00" timeLoss="16.41" rerouteNo="0" devices="tripinfo_f_3.1 routing_f_3.1" vType="DEFAULT_VEHTYPE" speedFactor="1.03" vaporized=""/>
    <tripinfo id="f_2.1" depart="9.00" departLane="E0_0" departPos="0.00" departSpeed="0.00" departDelay="0.00" arrival="70.00" arrivalLane="-340474222_0" arrivalPos="19.57" arrivalSpeed="10.61" duration="61.00" routeLength="528.48" waitingTime="7.00" waitingCount="1" stopTime="0.00" timeLoss="24.32" rerouteNo="0" devices="tripinfo_f_2.1 routing_f_2.1" vType="DEFAULT_VEHTYPE" speedFactor="1.05" vaporized=""/>
    <tripinfo id="f_3.0" depart="3.00" departLane="E0_1" departPos="5.10" departSpeed="0.00" departDelay="3.00" arrival="73.00" arrivalLane="939141447#1_0" arrivalPos="214.04" arrivalSpeed="29.22" duration="70.00" routeLength="593.21" waitingTime="22.00" waitingCount="2" stopTime="0.00" timeLoss="37.84" rerouteNo="0" devices="tripinfo_f_3.0 routing_f_3.0" vType="DEFAULT_VEHTYPE" speedFactor="1.08" vaporized=""/>
    <tripinfo id="f_2.2" depart="18.00" departLane="E0_0" departPos="0.00" departSpeed="0.00" departDelay="0.00" arrival="74.00" arrivalLane="-340474222_0" arrivalPos="19.57" arrivalSpeed="11.12" duration="56.00" routeLength="528.48" waitingTime="0.00" waitingCount="0" stopTime="0.00" timeLoss="19.83" rerouteNo="0" devices="tripinfo_f_2.2 routing_f_2.2" vType="DEFAULT_VEHTYPE" speedFactor="1.09" vaporized=""/>
    <tripinfo id="f_2.3" depart="27.00" departLane="E0_1" departPos="0.00" departSpeed="0.00" departDelay="0.00" arrival="77.00" arrivalLane="-340474222_0" arrivalPos="19.57" arrivalSpeed="9.77" duration="50.00" routeLength="528.48" waitingTime="0.00" waitingCount="0" stopTime="0.00" timeLoss="10.43" rerouteNo="0" devices="tripinfo_f_2.3 routing_f_2.3" vType="DEFAULT_VEHTYPE" speedFactor="0.99" vaporized=""/>
    <tripinfo id="f_3.2" depart="37.00" departLane="E0_0" departPos="5.10" departSpeed="0.00" departDelay="1.00" arrival="84.00" arrivalLane="939141447#1_2" arrivalPos="214.04" arrivalSpeed="31.46" duration="47.00" routeLength="593.21" waitingTime="3.00" waitingCount="1" stopTime="0.00" timeLoss="17.57" rerouteNo="0" devices="tripinfo_f_3.2 routing_f_3.2" vType="DEFAULT_VEHTYPE" speedFactor="1.16" vaporized=""/>
    <tripinfo id="f_2.4" depart="36.00" departLane="E0_1" departPos="0.00" departSpeed="0.00" departDelay="0.00" arrival="89.00" arrivalLane="-340474222_0" arrivalPos="19.57" arrivalSpeed="8.56" duration="53.00" routeLength="528.48" waitingTime="0.00" waitingCount="0" stopTime="0.00" timeLoss="11.31" rerouteNo="0" devices="tripinfo_f_2.4 routing_f_2.4" vType="DEFAULT_VEHTYPE" speedFactor="0.94" vaporized=""/>
    <tripinfo id="f_2.5" depart="45.00" departLane="E0_0" departPos="0.00" departSpeed="0.00" departDelay="0.00" arrival="96.00" arrivalLane="-340474222_0" arrivalPos="19.57" arrivalSpeed="9.98" duration="51.00" routeLength="528.48" waitingTime="0.00" waitingCount="0" stopTime="0.00" timeLoss="11.14" rerouteNo="0" devices="tripinfo_f_2.5 routing_f_2.5" vType="DEFAULT_VEHTYPE" speedFactor="0.97" vaporized=""/>
    <tripinfo id="f_1.3" depart="27.00" departLane="-156261434#2_0" departPos="5.10" departSpeed="0.00" departDelay="0.00" arrival="105.00" arrivalLane="939141447#1_0" arrivalPos="214.04" arrivalSpeed="31.09" duration="78.00" routeLength="552.29" waitingTime="31.00" waitingCount="2" stopTime="0.00" timeLoss="58.62" rerouteNo="0" devices="tripinfo_f_1.3 routing_f_1.3" vType="DEFAULT_VEHTYPE" speedFactor="1.12" vaporized=""/>
    <tripinfo id="f_1.5" depart="45.00" departLane="-156261434#2_0" departPos="5.10" departSpeed="0.00" departDelay="0.00" arrival="105.00" arrivalLane="939141447#1_2" arrivalPos="214.04" arrivalSpeed="27.15" duration="60.00" routeLength="558.04" waitingTime="18.00" waitingCount="1" stopTime="0.00" timeLoss="37.40" rerouteNo="0" devices="tripinfo_f_1.5 routing_f_1.5" vType="DEFAULT_VEHTYPE" speedFactor="1.01" vaporized=""/>
    <tripinfo id="f_0.5" depart="30.00" departLane="693449409#0_1" departPos="5.10" departSpeed="0.00" departDelay="0.00" arrival="107.00" arrivalLane="459784945#3_2" arrivalPos="27.33" arrivalSpeed="24.67" duration="77.00" routeLength="538.07" waitingTime="41.00" waitingCount="1" stopTime="0.00" timeLoss="55.59" rerouteNo="0" devices="tripinfo_f_0.5 routing_f_0.5" vType="DEFAULT_VEHTYPE" speedFactor="0.93" vaporized=""/>
    <tripinfo id="f_0.6" depart="36.00" departLane="693449409#0_2" departPos="5.10" departSpeed="0.00" departDelay="0.00" arrival="107.00" arrivalLane="459784945#3_0" arrivalPos="27.33" arrivalSpeed="23.76" duration="71.00" routeLength="538.07" waitingTime="34.00" waitingCount="1" stopTime="0.00" timeLoss="48.50" rerouteNo="0" devices="tripinfo_f_0.6 routing_f_0.6" vType="DEFAULT_VEHTYPE" speedFactor="0.88" vaporized=""/>
    <tripinfo id="f_1.2" depart="18.00" departLane="-156261434#2_0" departPos="5.10" departSpeed="0.00" departDelay="0.00" arrival="108.00" arrivalLane="939141447#1_0" arrivalPos="214.04" arrivalSpeed="23.05" duration="90.00" routeLength="552.29" waitingTime="43.00" waitingCount="1" stopTime="0.00" timeLoss="63.55" rerouteNo="0" devices="tripinfo_f_1.2 routing_f_1.2" vType="DEFAULT_VEHTYPE" speedFactor="0.86" vaporized=""/>
    <tripinfo id="f_0.7" depart="42.00" departLane="693449409#0_1" departPos="5.10" departSpeed="0.00" departDelay="0.00" arrival="108.00" arrivalLane="459784945#3_1" arrivalPos="27.33" arrivalSpeed="25.83" duration="66.00" routeLength="538.07" waitingTime="24.00" waitingCount="2" stopTime="0.00" timeLoss="46.47" rerouteNo="0" devices="tripinfo_f_0.7 routing_f_0.7" vType="DEFAULT_VEHTYPE" speedFactor="1.02" vaporized=""/>
    <tripinfo id="f_1.7" depart="63.00" departLane="-156261434#2_0" departPos="5.10" departSpeed="0.00" departDelay="0.00" arrival="108.00" arrivalLane="939141447#1_2" arrivalPos="214.04" arrivalSpeed="24.57" duration="45.00" routeLength="558.04" waitingTime="0.00" waitingCount="0" stopTime="0.00" timeLoss="20.17" rerouteNo="0" devices="tripinfo_f_1.7 routing_f_1.7" vType="DEFAULT_VEHTYPE" speedFactor="0.93" vaporized=""/>
    <tripinfo id="f_0.8" depart="48.00" departLane="693449409#0_0" departPos="5.10" departSpeed="0.00" departDelay="0.00" arrival="109.00" arrivalLane="459784945#3_1" arrivalPos="27.33" arrivalSpeed="23.90" duration="61.00" routeLength="538.07" waitingTime="20.00" waitingCount="2" stopTime="0.00" timeLoss="39.20" rerouteNo="0" devices="tripinfo_f_0.8 routing_f_0.8" vType="DEFAULT_VEHTYPE" speedFactor="0.89" vaporized=""/>
    <tripinfo id="f_1.6" depart="54.00" departLane="-156261434#2_0" departPos="5.10" departSpeed="0.00" departDelay="0.00" arrival="109.00" arrivalLane="939141447#1_1" arrivalPos="214.04" arrivalSpeed="23.02" duration="55.00" routeLength="555.10" waitingTime="9.00" waitingCount="1" stopTime="0.00" timeLoss="28.69" rerouteNo="0" devices="tripinfo_f_1.6 routing_f_1.6" vType="DEFAULT_VEHTYPE" speedFactor="0.87" vaporized=""/>
    <tripinfo id="f_0.10" depart="60.00" departLane="693449409#0_1" departPos="5.10" departSpeed="0.00" departDelay="0.00" arrival="109.00" arrivalLane="459784945#3_2" arrivalPos="27.33" arrivalSpeed="30.48" duration="49.00" routeLength="538.07" waitingTime="11.00" waitingCount="1" stopTime="0.00" timeLoss="31.29" rerouteNo="0" devices="tripinfo_f_0.10 routing_f_0.10" vType="DEFAULT_VEHTYPE" speedFactor="1.13" vaporized=""/>
    <tripinfo id="f_1.4" depart="36.00" departLane="-156261434#2_0" departPos="5.10" departSpeed="0.00" departDelay="0.00" arrival="110.00" arrivalLane="939141447#1_0" arrivalPos="214.04" arrivalSpeed="24.41" duration="74.00" routeLength="552.29" waitingTime="24.00" waitingCount="2" stopTime="0.00" timeLoss="50.17" rerouteNo="0" devices="tripinfo_f_1.4 routing_f_1.4" vType="DEFAULT_VEHTYPE" speedFactor="0.94" vaporized=""/>
    <tripinfo id="f_0.11" depart="66.00" departLane="693449409#0_1" departPos="5.10" departSpeed="0.00" departDelay="0.00" arrival="110.00" arrivalLane="459784945#3_2" arrivalPos="27.33" arrivalSpeed="31.53" duration="44.00" routeLength="538.07" waitingTime="6.00" waitingCount="1" stopTime="0.00" timeLoss="27.20" rerouteNo="0" devices="tripinfo_f_0.11 routing_f_0.11" vType="DEFAULT_VEHTYPE" speedFactor="1.15" vaporized=""/>
    <tripinfo id="f_0.9" depart="54.00" departLane="693449409#0_1" departPos="5.10" departSpeed="0.00" departDelay="0.00" arrival="111.00" arrivalLane="459784945#3_1" arrivalPos="27.33" arrivalSpeed="22.15" duration="57.00" routeLength="538.07" waitingTime="16.00" waitingCount="1" stopTime="0.00" timeLoss="33.32" rerouteNo="0" devices="tripinfo_f_0.9 routing_f_0.9" vType="DEFAULT_VEHTYPE" speedFactor="0.83" vaporized=""/>
    <tripinfo id="f_1.8" depart="72.00" departLane="-156261434#2_0" departPos="5.10" departSpeed="0.00" departDelay="0.00" arrival="111.00" arrivalLane="939141447#1_0" arrivalPos="214.04" arrivalSpeed="24.41" duration="39.00" routeLength="552.29" waitingTime="0.00" waitingCount="0" stopTime="0.00" timeLoss="20.16" rerouteNo="0" devices="tripinfo_f_1.8 routing_f_1.8" vType="DEFAULT_VEHTYPE" speedFactor="1.17" vaporized=""/>
    <tripinfo id="f_1.9" depart="81.00" departLane="-156261434#2_0" departPos="5.10" departSpeed="0.00" departDelay="0.00" arrival="111.00" arrivalLane="939141447#1_2" arrivalPos="214.04" arrivalSpeed="31.84" duration="30.00" routeLength="558.04" waitingTime="0.00" waitingCount="0" stopTime="0.00" timeLoss="11.09" rerouteNo="0" devices="tripinfo_f_1.9 routing_f_1.9" vType="DEFAULT_VEHTYPE" speedFactor="1.18" vaporized=""/>
    <tripinfo id="f_0.12" depart="72.00" departLane="693449409#0_2" departPos="5.10" departSpeed="0.00" departDelay="0.00" arrival="113.00" arrivalLane="459784945#3_2" arrivalPos="27.33" arrivalSpeed="26.94" duration="41.00" routeLength="538.07" waitingTime="1.00" waitingCount="1" stopTime="0.00" timeLoss="20.80" rerouteNo="0" devices="tripinfo_f_0.12 routing_f_0.12" vType="DEFAULT_VEHTYPE" speedFactor="1.01" vaporized=""/>
    <tripinfo id="f_0.13" depart="78.00" departLane="693449409#0_0" departPos="5.10" departSpeed="0.00" departDelay="0.00" arrival="113.00" arrivalLane="459784945#3_1" arrivalPos="27.33" arrivalSpeed="26.33" duration="35.00" routeLength="538.07" waitingTime="0.00" waitingCount="0" stopTime="0.00" timeLoss="14.30" rerouteNo="0" devices="tripinfo_f_0.13 routing_f_0.13" vType="DEFAULT_VEHTYPE" speedFactor="0.97" vaporized=""/>
    <tripinfo id="f_0.14" depart="84.00" departLane="693449409#0_1" departPos="5.10" departSpeed="0.00" departDelay="0.00" arrival="115.00" arrivalLane="459784945#3_2" arrivalPos="27.33" arrivalSpeed="24.61" duration="31.00" routeLength="538.07" waitingTime="0.00" waitingCount="0" stopTime="0.00" timeLoss="8.74" rerouteNo="0" devices="tripinfo_f_0.14 routing_f_0.14" vType="DEFAULT_VEHTYPE" speedFactor="0.90" vaporized=""/>
    <tripinfo id="f_0.15" depart="90.00" departLane="693449409#0_0" departPos="5.10" departSpeed="0.00" departDelay="0.00" arrival="116.00" arrivalLane="459784945#3_0" arrivalPos="27.33" arrivalSpeed="28.06" duration="26.00" routeLength="538.07" waitingTime="0.00" waitingCount="0" stopTime="0.00" timeLoss="6.51" rerouteNo="0" devices="tripinfo_f_0.15 routing_f_0.15" vType="DEFAULT_VEHTYPE" speedFactor="1.03" vaporized=""/>
    <tripinfo id="f_0.16" depart="96.00" departLane="693449409#0_0" departPos="5.10" departSpeed="0.00" departDelay="0.00" arrival="122.00" arrivalLane="459784945#3_2" arrivalPos="27.33" arrivalSpeed="27.94" duration="26.00" routeLength="538.07" waitingTime="0.00" waitingCount="0" stopTime="0.00" timeLoss="7.20" rerouteNo="0" devices="tripinfo_f_0.16 routing_f_0.16" vType="DEFAULT_VEHTYPE" speedFactor="1.04" vaporized=""/>
    <tripinfo id="f_1.10" depart="90.00" departLane="-156261434#2_0" departPos="5.10" departSpeed="0.00" departDelay="0.00" arrival="124.00" arrivalLane="939141447#1_2" arrivalPos="214.04" arrivalSpeed="25.91" duration="34.00" routeLength="558.04" waitingTime="0.00" waitingCount="0" stopTime="0.00" timeLoss="10.37" rerouteNo="0" devices="tripinfo_f_1.10 routing_f_1.10" vType="DEFAULT_VEHTYPE" speedFactor="0.96" vaporized=""/>
    <tripinfo id="f_1.11" depart="99.00" departLane="-156261434#2_0" departPos="5.10" departSpeed="0.00" departDelay="0.00" arrival="131.00" arrivalLane="939141447#1_2" arrivalPos="214.04" arrivalSpeed="30.19" duration="32.00" routeLength="558.04" waitingTime="0.00" waitingCount="0" stopTime="0.00" timeLoss="11.30" rerouteNo="0" devices="tripinfo_f_1.11 routing_f_1.11" vType="DEFAULT_VEHTYPE" speedFactor="1.09" vaporized=""/>
    <tripinfo id="f_0.17" depart="102.00" departLane="693449409#0_0" departPos="5.10" departSpeed="0.00" departDelay="0.00" arrival="132.00" arrivalLane="459784945#3_2" arrivalPos="27.33" arrivalSpeed="23.72" duration="30.00" routeLength="538.07" waitingTime="0.00" waitingCount="0" stopTime="0.00" timeLoss="7.57" rerouteNo="0" devices="tripinfo_f_0.17 routing_f_0.17" vType="DEFAULT_VEHTYPE" speedFactor="0.90" vaporized=""/>
    <tripinfo id="f_0.18" depart="108.00" departLane="693449409#0_2" departPos="5.10" departSpeed="0.00" departDelay="0.00" arrival="137.00" arrivalLane="459784945#3_1" arrivalPos="27.33" arrivalSpeed="24.26" duration="29.00" routeLength="538.07" waitingTime="0.00" waitingCount="0" stopTime="0.00" timeLoss="6.11" rerouteNo="0" devices="tripinfo_f_0.18 routing_f_0.18" vType="DEFAULT_VEHTYPE" speedFactor="0.88" vaporized=""/>
    <tripinfo id="f_0.19" depart="114.00" departLane="693449409#0_0" departPos="5.10" departSpeed="0.00" departDelay="0.00" arrival="141.00" arrivalLane="459784945#3_0" arrivalPos="27.33" arrivalSpeed="27.62" duration="27.00" routeLength="538.07" waitingTime="0.00" waitingCount="0" stopTime="0.00" timeLoss="7.31" rerouteNo="0" devices="tripinfo_f_0.19 routing_f_0.19" vType="DEFAULT_VEHTYPE" speedFactor="1.02" vaporized=""/>
</tripinfos>
